 Gaussian 16, Revision A.03,
 Gaussian 16:  EM64L-G16RevA.03 25-Dec-2016

 --------------------------------------------------------------------
 #p CAM-B3lYP gen pseudo=read TD(Nstates=200) empiricaldispersion=gd3
 --------------------------------------------------------------------

 ------
 Step 2
 ------
 Symbolic Z-matrix:
 Charge = -3 Multiplicity = 1

                         Standard orientation:
 ---------------------------------------------------------------------
 Center     Atomic      Atomic             Coordinates (Angstroms)
 Number     Number       Type             X           Y           Z
 ---------------------------------------------------------------------
      1         48           0       -0.693550    0.864158   -0.900684
      2          6           0        2.046109   -0.180643   -1.684095
      3          6           0        1.279748   -1.484053   -1.586227
      4          6           0        1.849814   -2.699860   -1.959395
      5          1           0        2.732662   -2.753968   -2.247776
      6          6           0        1.046273   -3.826376   -1.882183
      7          1           0        1.370326   -4.661481   -2.132116
      8          6           0       -0.244588   -3.680260   -1.424591
      9          6           0       -0.748842   -2.444588   -1.062624
     10          1           0       -1.623966   -2.371230   -0.756844
     11          7           0        0.016538   -1.359426   -1.150223
     12          7           0       -1.106521   -4.865446   -1.317481
     13          8           0        1.430590    0.882096   -1.746553
     14          8           0        3.311587   -0.296204   -1.666357
     15          8           0       -0.564822   -5.961160   -1.299747
     16          8           0       -2.314173   -4.700525   -1.211041
     17          6           0        0.102971    2.998757    1.163073
     18          6           0       -0.663455    3.809575    0.130621
     19          6           0       -0.973574    5.139755    0.326638
     20          1           0       -0.698288    5.570954    1.103074
     21          6           0       -1.686325    5.825441   -0.619360
     22          1           0       -1.928602    6.713404   -0.488719
     23          6           0       -2.033299    5.151064   -1.778903
     24          6           0       -1.696248    3.810251   -1.946019
     25          1           0       -1.949305    3.365227   -2.722382
     26          7           0       -1.014975    3.161292   -1.006356
     27          7           0       -2.806370    5.809230   -2.819086
     28          8           0        0.367824    1.802931    0.904901
     29          8           0        0.427004    3.616330    2.210065
     30          8           0       -2.856158    5.250593   -3.920566
     31          8           0       -3.344724    6.863245   -2.553622
     32         48           0        4.500696   -0.054817    0.297571
     33          8           0       -1.882659    0.622771   -2.864611
     34          8           0       -2.535450    0.089510    0.137380
     35          6           0       -3.052897    0.855959    0.990252
     36          6           0       -4.403636    0.419714    1.534297
     37          6           0       -5.016023   -0.747255    1.125469
     38          1           0       -4.594018   -1.301820    0.509889
     39          6           0       -6.243847   -1.089610    1.623798
     40          1           0       -6.682498   -1.857103    1.336074
     41          6           0       -6.810008   -0.253681    2.572691
     42          6           0       -6.159122    0.912345    2.967713
     43          1           0       -6.557821    1.472679    3.593724
     44          7           0       -4.972547    1.230841    2.458941
     45          7           0       -8.119840   -0.543336    3.132371
     46          8           0       -2.548998    1.915776    1.425766
     47          8           0       -8.448196    0.082203    4.146618
     48          8           0       -8.805240   -1.380842    2.584602
     49          6           0        7.240355   -1.099618   -0.485841
     50          6           0        6.473994   -2.403028   -0.387973
     51          6           0        7.044060   -3.618835   -0.761141
     52          1           0        7.926908   -3.672943   -1.049522
     53          6           0        6.240519   -4.745351   -0.683929
     54          1           0        6.564573   -5.580456   -0.933862
     55          6           0        4.949658   -4.599235   -0.226337
     56          6           0        4.445405   -3.363562    0.135630
     57          1           0        3.570280   -3.290205    0.441410
     58          7           0        5.210784   -2.278400    0.048031
     59          7           0        4.087726   -5.784421   -0.119227
     60          8           0        6.624836   -0.036879   -0.548298
     61          8           0        8.505834   -1.215179   -0.468102
     62          8           0        4.629425   -6.880135   -0.101493
     63          8           0        2.880074   -5.619500   -0.012787
     64          6           0        5.297218    2.079782    2.361327
     65          6           0        4.530792    2.890600    1.328876
     66          6           0        4.220673    4.220780    1.524892
     67          1           0        4.495959    4.651980    2.301329
     68          6           0        3.507921    4.906466    0.578894
     69          1           0        3.265644    5.794430    0.709536
     70          6           0        3.160948    4.232089   -0.580649
     71          6           0        3.497999    2.891276   -0.747765
     72          1           0        3.244942    2.446252   -1.524128
     73          7           0        4.179271    2.242318    0.191898
     74          7           0        2.387876    4.890255   -1.620831
     75          8           0        5.562070    0.883957    2.103155
     76          8           0        5.621251    2.697355    3.408320
     77          8           0        2.338088    4.331618   -2.722312
     78          8           0        1.849523    5.944270   -1.355368
     79          8           0        2.658788   -0.829463    1.335632
     80          6           0        2.141350   -0.063016    2.188506
     81          6           0        0.790611   -0.499261    2.732552
     82          6           0        0.178223   -1.666230    2.323723
     83          1           0        0.600228   -2.220795    1.708144
     84          6           0       -1.049601   -2.008585    2.822052
     85          1           0       -1.488252   -2.776078    2.534328
     86          6           0       -1.615761   -1.172655    3.770945
     87          6           0       -0.964875   -0.006630    4.165968
     88          1           0       -1.363574    0.553704    4.791978
     89          7           0        0.221699    0.311866    3.657195
     90          7           0       -2.925593   -1.462311    4.330626
     91          8           0        2.645249    0.996801    2.624020
     92          8           0       -3.253949   -0.836772    5.344872
     93          8           0       -3.610994   -2.299817    3.782856
     94          6           0       -3.148138    0.738332   -2.882350
     95          6           0       -3.914499   -0.565078   -2.784482
     96          6           0       -3.344433   -1.780885   -3.157649
     97          1           0       -2.461585   -1.834993   -3.446031
     98          6           0       -4.147974   -2.907401   -3.080438
     99          1           0       -3.823921   -3.742506   -3.330370
    100          6           0       -5.438835   -2.761285   -2.622845
    101          6           0       -5.943088   -1.525613   -2.260878
    102          1           0       -6.818213   -1.452256   -1.955099
    103          7           0       -5.177709   -0.440451   -2.348478
    104          7           0       -6.300768   -3.946471   -2.515735
    105          8           0       -3.763657    1.801070   -2.944807
    106          8           0       -5.759069   -5.042185   -2.498001
    107          8           0       -7.508420   -3.781550   -2.409295
 ---------------------------------------------------------------------

 SCF Done:  E(RCAM-B3LYP) =  -4579.37091882     A.U. after   18 cycles

 Excitation energies and oscillator strengths:

 Excited State   1:      Singlet-A      2.6529 eV  467.34 nm  f=0.0002  <S**2>=0.000
     309 -> 312        0.23749
     310 -> 312       -0.44660
     311 -> 312        0.48163
 This state for optimization and/or second-order correction.
 Total Energy, E(TD-HF/TD-DFT) =  -4579.27342470
 Copying the excited state density for this state as the 1-particle RhoCI density.

 Excited State   2:      Singlet-A      2.8235 eV  439.12 nm  f=0.0076  <S**2>=0.000
     301 -> 312        0.43177
     301 -> 313        0.10456
     301 -> 322        0.15841
     305 -> 312        0.28657
     309 -> 312        0.32877
     310 -> 312        0.15461

 Excited State   3:      Singlet-A      2.8489 eV  435.19 nm  f=0.0004  <S**2>=0.000
     310 -> 316        0.35089
     310 -> 330       -0.11753
     311 -> 313        0.13604
     311 -> 316        0.50015
     311 -> 326       -0.11478
     311 -> 330       -0.16287

 Excited State   4:      Singlet-A      2.8622 eV  433.18 nm  f=0.0032  <S**2>=0.000
     307 -> 313       -0.14375
     309 -> 313        0.26086
     310 -> 313       -0.35738
     311 -> 313        0.47702

 Excited State   5:      Singlet-A      2.9292 eV  423.27 nm  f=0.0047  <S**2>=0.000
     301 -> 312       -0.33350
     301 -> 322       -0.11287
     309 -> 312        0.49120
     309 -> 313        0.10373
     310 -> 312        0.27971

 Excited State   6:      Singlet-A      2.9491 eV  420.41 nm  f=0.0021  <S**2>=0.000
     306 -> 313        0.10505
     309 -> 312        0.18706
     309 -> 313       -0.10030
     310 -> 312       -0.26425
     310 -> 313        0.35237
     311 -> 312       -0.33623
     311 -> 313        0.30694

 Excited State   7:      Singlet-A      3.0417 eV  407.62 nm  f=0.0000  <S**2>=0.000
     303 -> 315        0.12701
     304 -> 314        0.10354
     304 -> 315        0.47813
     304 -> 328        0.19584
     308 -> 315        0.32340
     310 -> 315        0.11976
     311 -> 315        0.14528

 Excited State   8:      Singlet-A      3.0858 eV  401.79 nm  f=0.0000  <S**2>=0.000
     306 -> 317        0.12479
     307 -> 317       -0.17488
     309 -> 317        0.25404
     310 -> 317       -0.33979
     310 -> 331        0.12298
     311 -> 317        0.37455
     311 -> 331       -0.12613

 Excited State   9:      Singlet-A      3.0865 eV  401.69 nm  f=0.0002  <S**2>=0.000
     306 -> 313        0.11959
     307 -> 312       -0.12849
     308 -> 313        0.10803
     309 -> 312       -0.13410
     310 -> 312        0.31986
     310 -> 313        0.26347
     311 -> 312        0.35785
     311 -> 313        0.29892

 Excited State  10:      Singlet-A      3.1160 eV  397.90 nm  f=0.0008  <S**2>=0.000
     303 -> 312        0.12784
     306 -> 312        0.42961
     308 -> 312        0.34800
     308 -> 313       -0.28378
     310 -> 313        0.18399
     311 -> 313        0.11072

 Excited State  11:      Singlet-A      3.1551 eV  392.97 nm  f=0.0008  <S**2>=0.000
     309 -> 316       -0.15487
     309 -> 319        0.42005
     309 -> 327       -0.12721
     309 -> 332       -0.17020
     310 -> 316       -0.13440
     310 -> 319        0.33982
     310 -> 332       -0.12781
     311 -> 319       -0.19463

 Excited State  12:      Singlet-A      3.1610 eV  392.23 nm  f=0.0006  <S**2>=0.000
     306 -> 312       -0.22904
     307 -> 312        0.60096
     307 -> 313        0.10116
     311 -> 312        0.11332

 Excited State  13:      Singlet-A      3.1685 eV  391.30 nm  f=0.0002  <S**2>=0.000
     303 -> 312        0.10296
     306 -> 312        0.37420
     307 -> 312        0.19720
     308 -> 312       -0.18873
     308 -> 313        0.48872

 Excited State  14:      Singlet-A      3.2380 eV  382.91 nm  f=0.0133  <S**2>=0.000
     302 -> 313       -0.17028
     302 -> 314        0.46519
     302 -> 325        0.18654
     303 -> 313       -0.12642
     303 -> 314        0.34305
     303 -> 325        0.13500

 Excited State  15:      Singlet-A      3.2601 eV  380.30 nm  f=0.0019  <S**2>=0.000
     306 -> 313        0.52376
     307 -> 313        0.16970
     308 -> 312        0.25819
     308 -> 313        0.11031
     309 -> 313       -0.16434
     310 -> 313       -0.21174

 Excited State  16:      Singlet-A      3.3213 eV  373.30 nm  f=0.0020  <S**2>=0.000
     305 -> 313        0.13908
     306 -> 313        0.22546
     309 -> 313        0.53715
     310 -> 313        0.23572
     311 -> 313       -0.15572

 Excited State  17:      Singlet-A      3.3523 eV  369.85 nm  f=0.0006  <S**2>=0.000
     306 -> 312       -0.17691
     306 -> 313       -0.24072
     307 -> 312       -0.11295
     308 -> 312        0.49732
     308 -> 313        0.34834

 Excited State  18:      Singlet-A      3.3641 eV  368.55 nm  f=0.0000  <S**2>=0.000
     304 -> 315       -0.13909
     310 -> 315        0.30935
     310 -> 317       -0.11431
     311 -> 314        0.16391
     311 -> 315        0.48780
     311 -> 317       -0.10141
     311 -> 319       -0.17343

 Excited State  19:      Singlet-A      3.3799 eV  366.83 nm  f=0.0003  <S**2>=0.000
     310 -> 315        0.10101
     310 -> 319        0.31774
     311 -> 315        0.16667
     311 -> 319        0.57388

 Excited State  20:      Singlet-A      3.3838 eV  366.40 nm  f=0.0006  <S**2>=0.000
     292 -> 312       -0.10002
     294 -> 312        0.10333
     297 -> 312       -0.11173
     301 -> 312       -0.17470
     305 -> 312        0.57613
     309 -> 312       -0.15186

 Excited State  21:      Singlet-A      3.4902 eV  355.23 nm  f=0.0001  <S**2>=0.000
     310 -> 314        0.29875
     311 -> 314        0.58110
     311 -> 315       -0.16307

 Excited State  22:      Singlet-A      3.5190 eV  352.33 nm  f=0.0003  <S**2>=0.000
     294 -> 317        0.23112
     295 -> 317        0.11283
     300 -> 317        0.44149
     300 -> 331       -0.12020
     303 -> 317        0.10857
     305 -> 317       -0.13191
     307 -> 313        0.10704
     311 -> 317        0.22051

 Excited State  23:      Singlet-A      3.5459 eV  349.65 nm  f=0.0043  <S**2>=0.000
     305 -> 313       -0.10181
     306 -> 316       -0.11008
     307 -> 313        0.28561
     309 -> 313        0.11857
     309 -> 316        0.16765
     309 -> 319       -0.31855
     310 -> 316       -0.17628
     310 -> 319        0.32190
     311 -> 316        0.11432
     311 -> 319       -0.15407

 Excited State  24:      Singlet-A      3.5567 eV  348.59 nm  f=0.0041  <S**2>=0.000
     300 -> 313        0.14457
     305 -> 313       -0.15299
     306 -> 313       -0.10882
     307 -> 313        0.44267
     309 -> 313        0.19428
     309 -> 316       -0.10865
     309 -> 319        0.19929
     310 -> 316        0.11372
     310 -> 319       -0.18929
     311 -> 319        0.10899

 Excited State  25:      Singlet-A      3.5689 eV  347.40 nm  f=0.0145  <S**2>=0.000
     308 -> 316        0.62901
     308 -> 319       -0.19397

 Excited State  26:      Singlet-A      3.5949 eV  344.89 nm  f=0.0132  <S**2>=0.000
     292 -> 312       -0.18227
     297 -> 312        0.58233
     297 -> 313        0.12869
     297 -> 322        0.13128
     307 -> 313        0.11560

 Excited State  27:      Singlet-A      3.5981 eV  344.58 nm  f=0.0002  <S**2>=0.000
     286 -> 315        0.12618
     287 -> 315       -0.10428
     289 -> 315        0.10804
     295 -> 315       -0.19757
     303 -> 315        0.12727
     304 -> 315        0.12340
     308 -> 314       -0.11030
     308 -> 315       -0.23625
     308 -> 316        0.10369
     309 -> 314        0.10682
     309 -> 315        0.12625
     310 -> 314       -0.20906
     310 -> 315       -0.18458
     311 -> 314        0.13988
     311 -> 315        0.25026
     311 -> 317        0.10855

 Excited State  28:      Singlet-A      3.6119 eV  343.27 nm  f=0.0021  <S**2>=0.000
     283 -> 314        0.13438
     296 -> 313        0.12038
     296 -> 314       -0.28087
     296 -> 325       -0.11180
     298 -> 313       -0.15599
     298 -> 314        0.33163
     298 -> 325        0.11253
     303 -> 313       -0.18318
     310 -> 314       -0.17197

 Excited State  29:      Singlet-A      3.6287 eV  341.68 nm  f=0.0006  <S**2>=0.000
     296 -> 314       -0.12142
     298 -> 314        0.13500
     303 -> 313       -0.12124
     306 -> 316       -0.20521
     307 -> 316       -0.10183
     308 -> 315       -0.16361
     309 -> 314       -0.14872
     310 -> 314        0.33991
     311 -> 314       -0.22048
     311 -> 317       -0.12495

 Excited State  30:      Singlet-A      3.6356 eV  341.03 nm  f=0.0025  <S**2>=0.000
     302 -> 316        0.14664
     303 -> 316       -0.17643
     306 -> 316        0.35896
     307 -> 316        0.17544
     308 -> 315       -0.15063
     309 -> 319       -0.14351
     310 -> 314        0.15044
     310 -> 315        0.13273
     310 -> 319        0.16742

 Excited State  31:      Singlet-A      3.6413 eV  340.49 nm  f=0.0005  <S**2>=0.000
     300 -> 317       -0.13387
     303 -> 313       -0.11894
     309 -> 314       -0.11255
     310 -> 314        0.24564
     310 -> 315       -0.13040
     310 -> 317        0.31022
     311 -> 314       -0.15299
     311 -> 315        0.17449
     311 -> 317        0.35257

 Excited State  32:      Singlet-A      3.6499 eV  339.69 nm  f=0.0043  <S**2>=0.000
     296 -> 314       -0.13543
     298 -> 314        0.14895
     302 -> 312        0.12150
     302 -> 313       -0.15035
     303 -> 312       -0.26663
     303 -> 313        0.42684
     303 -> 314        0.10448
     304 -> 313       -0.13187

 Excited State  33:      Singlet-A      3.6635 eV  338.43 nm  f=0.0005  <S**2>=0.000
     308 -> 314       -0.14656
     308 -> 315       -0.14040
     308 -> 317        0.16035
     309 -> 315       -0.17709
     310 -> 315        0.41484
     310 -> 317        0.25100
     311 -> 315       -0.21479
     311 -> 317        0.16106

 Excited State  34:      Singlet-A      3.6980 eV  335.27 nm  f=0.0006  <S**2>=0.000
     295 -> 313        0.10830
     296 -> 313       -0.12370
     298 -> 314        0.11682
     302 -> 312       -0.22717
     302 -> 313        0.46975
     302 -> 314        0.14241
     303 -> 313        0.11503
     303 -> 314        0.10712
     304 -> 313       -0.20778
     308 -> 314        0.10779

 Excited State  35:      Singlet-A      3.7033 eV  334.80 nm  f=0.0005  <S**2>=0.000
     302 -> 313       -0.13910
     303 -> 313       -0.18878
     304 -> 312        0.17747
     304 -> 313       -0.37200
     304 -> 314        0.10813
     308 -> 314        0.42023
     308 -> 315       -0.11458
     310 -> 314       -0.12074

 Excited State  36:      Singlet-A      3.7298 eV  332.41 nm  f=0.0004  <S**2>=0.000
     303 -> 313        0.14387
     304 -> 312       -0.21721
     304 -> 313        0.39274
     304 -> 314        0.12039
     308 -> 314        0.42371
     308 -> 319       -0.10714

 Excited State  37:      Singlet-A      3.7495 eV  330.67 nm  f=0.0030  <S**2>=0.000
     286 -> 315       -0.11126
     295 -> 315        0.12572
     304 -> 315        0.10293
     308 -> 314        0.12825
     308 -> 315       -0.16383
     308 -> 316        0.15345
     308 -> 317        0.42526
     308 -> 319        0.30601
     310 -> 315       -0.10018

 Excited State  38:      Singlet-A      3.7620 eV  329.57 nm  f=0.0099  <S**2>=0.000
     291 -> 312        0.19095
     292 -> 312        0.34474
     292 -> 322        0.11066
     297 -> 312        0.17153
     300 -> 312       -0.25318
     302 -> 313        0.14661
     305 -> 312        0.15575
     305 -> 313       -0.24063
     307 -> 313       -0.16720

 Excited State  39:      Singlet-A      3.7628 eV  329.50 nm  f=0.0044  <S**2>=0.000
     286 -> 315        0.10056
     295 -> 315       -0.10996
     304 -> 315       -0.11956
     308 -> 315        0.14741
     308 -> 316        0.13261
     308 -> 317       -0.18371
     308 -> 319        0.55128

 Excited State  40:      Singlet-A      3.7737 eV  328.54 nm  f=0.0013  <S**2>=0.000
     291 -> 312        0.12529
     292 -> 312        0.21537
     294 -> 312       -0.23291
     297 -> 312        0.12573
     300 -> 312        0.37580
     301 -> 312       -0.22058
     305 -> 312        0.13805
     305 -> 313        0.22078
     307 -> 313        0.13846

 Excited State  41:      Singlet-A      3.8053 eV  325.82 nm  f=0.0017  <S**2>=0.000
     289 -> 313        0.11192
     292 -> 312        0.10003
     295 -> 313        0.10618
     300 -> 312       -0.31089
     300 -> 313       -0.18873
     302 -> 312        0.18895
     303 -> 312       -0.22872
     305 -> 313        0.34222
     307 -> 313        0.16371

 Excited State  42:      Singlet-A      3.8209 eV  324.49 nm  f=0.0097  <S**2>=0.000
     304 -> 315       -0.17549
     306 -> 315       -0.15019
     306 -> 317        0.12586
     308 -> 315        0.36155
     308 -> 317        0.41067
     308 -> 319       -0.10175

 Excited State  43:      Singlet-A      3.8271 eV  323.96 nm  f=0.0007  <S**2>=0.000
     309 -> 318        0.25830
     310 -> 318       -0.42493
     311 -> 318        0.44803

 Excited State  44:      Singlet-A      3.8558 eV  321.55 nm  f=0.0033  <S**2>=0.000
     292 -> 312        0.11064
     300 -> 312       -0.23201
     300 -> 313       -0.11686
     302 -> 312       -0.20978
     302 -> 313       -0.14049
     303 -> 312        0.33340
     303 -> 313        0.19800
     304 -> 312       -0.17490
     304 -> 313       -0.15862
     305 -> 313        0.18708
     306 -> 312       -0.17304
     306 -> 313       -0.10497

 Excited State  45:      Singlet-A      3.8759 eV  319.88 nm  f=0.0041  <S**2>=0.000
     289 -> 312       -0.15321
     289 -> 313        0.31685
     289 -> 323        0.10773
     290 -> 313        0.10353
     295 -> 312       -0.11226
     295 -> 313        0.23003
     302 -> 313       -0.23035
     303 -> 313        0.13581
     306 -> 315        0.10156
     306 -> 317       -0.11557
     309 -> 314       -0.12438

 Excited State  46:      Singlet-A      3.8826 eV  319.33 nm  f=0.0025  <S**2>=0.000
     286 -> 315       -0.10005
     289 -> 313        0.13694
     306 -> 314       -0.10954
     306 -> 315       -0.28074
     306 -> 317        0.33162
     307 -> 315       -0.11230
     307 -> 317        0.13530
     309 -> 314        0.18525
     309 -> 315        0.19093
     310 -> 315        0.11428

 Excited State  47:      Singlet-A      3.9003 eV  317.88 nm  f=0.0013  <S**2>=0.000
     301 -> 319       -0.14511
     305 -> 316       -0.19343
     305 -> 319        0.50936
     305 -> 327       -0.14350
     305 -> 332       -0.18770
     307 -> 319        0.21809

 Excited State  48:      Singlet-A      3.9053 eV  317.47 nm  f=0.0003  <S**2>=0.000
     306 -> 315        0.15625
     306 -> 317       -0.19117
     309 -> 314        0.57543
     310 -> 314        0.23044

 Excited State  49:      Singlet-A      3.9451 eV  314.27 nm  f=0.0005  <S**2>=0.000
     299 -> 313       -0.11068
     306 -> 314        0.14529
     306 -> 317       -0.17240
     309 -> 315        0.57077
     310 -> 315        0.22062

 Excited State  50:      Singlet-A      3.9578 eV  313.26 nm  f=0.0014  <S**2>=0.000
     296 -> 313       -0.11670
     296 -> 314        0.17061
     299 -> 312       -0.18207
     299 -> 313        0.46913
     299 -> 314       -0.18340
     299 -> 315       -0.10236
     306 -> 314       -0.16078
     306 -> 317       -0.10820
     309 -> 314       -0.11798
     309 -> 315        0.16564

 Excited State  51:      Singlet-A      3.9661 eV  312.61 nm  f=0.0020  <S**2>=0.000
     300 -> 312        0.12224
     301 -> 318        0.40835
     301 -> 320        0.19125
     305 -> 318        0.31579
     305 -> 320        0.13285
     309 -> 318        0.28100
     310 -> 318        0.14721

 Excited State  52:      Singlet-A      3.9887 eV  310.84 nm  f=0.0034  <S**2>=0.000
     260 -> 314       -0.10755
     299 -> 312       -0.12677
     299 -> 313        0.29219
     302 -> 314        0.11332
     303 -> 314       -0.14436
     304 -> 314       -0.18350
     306 -> 314        0.40891
     306 -> 317        0.13680
     307 -> 314        0.14695
     309 -> 314        0.13928

 Excited State  53:      Singlet-A      3.9977 eV  310.14 nm  f=0.0067  <S**2>=0.000
     254 -> 313        0.24529
     255 -> 313        0.33118
     257 -> 313        0.14449
     261 -> 313        0.25766
     263 -> 313       -0.13737
     270 -> 313        0.13727
     272 -> 313       -0.14950
     276 -> 313        0.13484

 Excited State  54:      Singlet-A      3.9992 eV  310.02 nm  f=0.0168  <S**2>=0.000
     277 -> 319        0.12134
     299 -> 315        0.12921
     305 -> 319       -0.14767
     306 -> 315        0.21760
     306 -> 317        0.10699
     306 -> 319        0.21844
     307 -> 316       -0.14808
     307 -> 319        0.45524

 Excited State  55:      Singlet-A      4.0099 eV  309.19 nm  f=0.0198  <S**2>=0.000
     298 -> 315        0.11430
     299 -> 315        0.31646
     303 -> 315       -0.12188
     306 -> 315        0.22980
     306 -> 317        0.22560
     307 -> 316        0.10173
     307 -> 319       -0.28425
     310 -> 320        0.13767
     311 -> 320       -0.12354

 Excited State  56:      Singlet-A      4.0195 eV  308.46 nm  f=0.0043  <S**2>=0.000
     298 -> 315        0.12004
     299 -> 315        0.30725
     307 -> 320       -0.12147
     309 -> 320        0.22382
     310 -> 320       -0.32258
     311 -> 320        0.35168

 Excited State  57:      Singlet-A      4.0262 eV  307.95 nm  f=0.0026  <S**2>=0.000
     298 -> 315        0.11926
     299 -> 315        0.28658
     306 -> 315       -0.23978
     306 -> 317       -0.20729
     306 -> 319       -0.16029
     307 -> 319        0.15697
     309 -> 320       -0.11942
     310 -> 320        0.16594
     311 -> 320       -0.23204

 Excited State  58:      Singlet-A      4.0308 eV  307.59 nm  f=0.0178  <S**2>=0.000
     260 -> 314        0.38979
     260 -> 325       -0.10846
     270 -> 314       -0.11003
     283 -> 314       -0.22094
     296 -> 314       -0.18426
     299 -> 313        0.19941
     299 -> 314        0.18561
     304 -> 314        0.15346

 Excited State  59:      Singlet-A      4.0335 eV  307.39 nm  f=0.0137  <S**2>=0.000
     248 -> 312        0.15536
     249 -> 312        0.40542
     249 -> 322       -0.11764
     250 -> 312       -0.25573
     257 -> 312        0.20717
     261 -> 312       -0.19222
     272 -> 312       -0.17200
     276 -> 312       -0.12836

 Excited State  60:      Singlet-A      4.0421 eV  306.73 nm  f=0.0070  <S**2>=0.000
     277 -> 319        0.26885
     293 -> 319        0.10362
     306 -> 315       -0.13004
     306 -> 316       -0.14832
     306 -> 317       -0.15424
     306 -> 319        0.41781
     307 -> 316        0.10128
     307 -> 319       -0.14697

 Excited State  61:      Singlet-A      4.0513 eV  306.03 nm  f=0.0013  <S**2>=0.000
     260 -> 314        0.10341
     303 -> 312        0.14806
     304 -> 312        0.34915
     304 -> 313        0.16751
     304 -> 314       -0.33369
     306 -> 314       -0.26723
     306 -> 315        0.10899
     307 -> 314       -0.10582

 Excited State  62:      Singlet-A      4.0582 eV  305.52 nm  f=0.0070  <S**2>=0.000
     274 -> 316        0.24879
     275 -> 316        0.41649
     275 -> 319        0.13066
     275 -> 330        0.11175
     277 -> 319       -0.19111
     279 -> 316       -0.11069
     290 -> 316       -0.15055
     302 -> 316        0.10041

 Excited State  63:      Singlet-A      4.0644 eV  305.05 nm  f=0.0100  <S**2>=0.000
     274 -> 316        0.10324
     275 -> 316        0.17192
     277 -> 316       -0.12882
     277 -> 319        0.39889
     277 -> 332        0.11507
     282 -> 319       -0.10055
     293 -> 319        0.13623
     306 -> 316        0.10131
     306 -> 319       -0.32451
     310 -> 316       -0.10003

 Excited State  64:      Singlet-A      4.0675 eV  304.82 nm  f=0.0007  <S**2>=0.000
     303 -> 312        0.17669
     303 -> 314        0.10475
     304 -> 312        0.44258
     304 -> 313        0.19657
     304 -> 314        0.31157

 The electronic state is 1-A.
 Alpha  occ. eigenvalues --  -19.09197 -19.09181 -19.08249 -19.08225 -19.07719
 Alpha  occ. eigenvalues --  -19.07669 -19.07504 -19.06821 -19.04783 -19.04782
 Alpha  occ. eigenvalues --  -19.04059 -19.04048 -19.04004 -19.03272 -18.97272
 Alpha  occ. eigenvalues --  -18.95982 -18.94599 -18.94446 -18.93191 -18.92819
 Alpha  occ. eigenvalues --  -18.92522 -18.92396 -18.91785 -18.90264 -18.90176
 Alpha  occ. eigenvalues --  -18.89043 -18.88469 -18.88328 -14.48984 -14.48053
 Alpha  occ. eigenvalues --  -14.47444 -14.46886 -14.44187 -14.44115 -14.43433
 Alpha  occ. eigenvalues --  -14.25094 -14.24950 -14.21463 -14.20506 -14.20256
 Alpha  occ. eigenvalues --  -14.19719 -14.17184 -10.15364 -10.15062 -10.14534
 Alpha  occ. eigenvalues --  -10.13106 -10.13080 -10.13035 -10.12819 -10.12705
 Alpha  occ. eigenvalues --  -10.12497 -10.12150 -10.11694 -10.11688 -10.11464
 Alpha  occ. eigenvalues --  -10.10978 -10.10871 -10.10470 -10.09903 -10.09700
 Alpha  occ. eigenvalues --  -10.09618 -10.09256 -10.09213 -10.09203 -10.09166
 Alpha  occ. eigenvalues --  -10.09070 -10.08857 -10.08407 -10.08357 -10.08110
 Alpha  occ. eigenvalues --  -10.07829 -10.07657 -10.07324 -10.07234 -10.07018
 Alpha  occ. eigenvalues --  -10.06916 -10.06796 -10.06239 -10.05654 -10.05540
 Alpha  occ. eigenvalues --  -10.05496 -10.03295 -10.03022 -10.02645  -1.15609
 Alpha  occ. eigenvalues --   -1.14658  -1.14132  -1.13560  -1.10802  -1.10799
 Alpha  occ. eigenvalues --   -1.10044  -0.97602  -0.96628  -0.96122  -0.95609
 Alpha  occ. eigenvalues --   -0.92850  -0.92804  -0.92348  -0.92058  -0.89869
 Alpha  occ. eigenvalues --   -0.88448  -0.88233  -0.87222  -0.87019  -0.86174
 Alpha  occ. eigenvalues --   -0.84707  -0.84585  -0.84538  -0.83420  -0.82365
 Alpha  occ. eigenvalues --   -0.81741  -0.81274  -0.80369  -0.78799  -0.78509
 Alpha  occ. eigenvalues --   -0.78165  -0.76613  -0.76052  -0.75666  -0.74708
 Alpha  occ. eigenvalues --   -0.74638  -0.74286  -0.73359  -0.71599  -0.71462
 Alpha  occ. eigenvalues --   -0.71287  -0.70792  -0.70518  -0.69616  -0.68856
 Alpha  occ. eigenvalues --   -0.66574  -0.66270  -0.65961  -0.62793  -0.62493
 Alpha  occ. eigenvalues --   -0.60726  -0.60085  -0.57866  -0.57761  -0.57384
 Alpha  occ. eigenvalues --   -0.57277  -0.57217  -0.55629  -0.54407  -0.52778
 Alpha  occ. eigenvalues --   -0.52419  -0.52241  -0.51711  -0.51694  -0.50615
 Alpha  occ. eigenvalues --   -0.49717  -0.48711  -0.48367  -0.47709  -0.47098
 Alpha  occ. eigenvalues --   -0.47031  -0.46755  -0.46087  -0.45275  -0.45139
 Alpha  occ. eigenvalues --   -0.44963  -0.44331  -0.43966  -0.43837  -0.43671
 Alpha  occ. eigenvalues --   -0.43592  -0.43544  -0.43426  -0.43141  -0.42870
 Alpha  occ. eigenvalues --   -0.42620  -0.42177  -0.42111  -0.41993  -0.41770
 Alpha  occ. eigenvalues --   -0.41275  -0.41192  -0.41089  -0.41018  -0.40883
 Alpha  occ. eigenvalues --   -0.40846  -0.40704  -0.40540  -0.40428  -0.40394
 Alpha  occ. eigenvalues --   -0.40143  -0.39999  -0.39762  -0.39556  -0.39390
 Alpha  occ. eigenvalues --   -0.39029  -0.38391  -0.38143  -0.38088  -0.37976
 Alpha  occ. eigenvalues --   -0.37459  -0.37345  -0.36704  -0.36594  -0.35268
 Alpha  occ. eigenvalues --   -0.34999  -0.34467  -0.34398  -0.34129  -0.33881
 Alpha  occ. eigenvalues --   -0.33700  -0.33280  -0.32880  -0.32720  -0.32337
 Alpha  occ. eigenvalues --   -0.32222  -0.32112  -0.31987  -0.31814  -0.31191
 Alpha  occ. eigenvalues --   -0.30568  -0.30335  -0.29983  -0.29893  -0.29576
 Alpha  occ. eigenvalues --   -0.29543  -0.29326  -0.28531  -0.28342  -0.27841
 Alpha  occ. eigenvalues --   -0.27681  -0.26993  -0.26836  -0.26723  -0.26535
 Alpha  occ. eigenvalues --   -0.26273  -0.26064  -0.25783  -0.24720  -0.24402
 Alpha  occ. eigenvalues --   -0.24034  -0.23855  -0.23636  -0.23595  -0.23435
 Alpha  occ. eigenvalues --   -0.23081  -0.22318  -0.22131  -0.21428  -0.21233
 Alpha  occ. eigenvalues --   -0.21187  -0.20785  -0.20549  -0.20450  -0.20276
 Alpha  occ. eigenvalues --   -0.19933  -0.19909  -0.19807  -0.19566  -0.19514
 Alpha  occ. eigenvalues --   -0.19459  -0.19297  -0.19005  -0.18875  -0.18791
 Alpha  occ. eigenvalues --   -0.18462  -0.18257  -0.17967  -0.17869  -0.17308
 Alpha  occ. eigenvalues --   -0.17161  -0.16963  -0.16622  -0.16596  -0.16553
 Alpha  occ. eigenvalues --   -0.16006  -0.15747  -0.15518  -0.15450  -0.15391
 Alpha  occ. eigenvalues --   -0.15352  -0.14712  -0.14273  -0.14118  -0.13803
 Alpha  occ. eigenvalues --   -0.13588  -0.13531  -0.13234  -0.12815  -0.12445
 Alpha  occ. eigenvalues --   -0.12328  -0.11947  -0.11139  -0.10214  -0.10166
 Alpha  occ. eigenvalues --   -0.09972  -0.09787  -0.09436  -0.09347  -0.09097
 Alpha  occ. eigenvalues --   -0.08390  -0.07939  -0.07801  -0.07248  -0.07040
 Alpha  occ. eigenvalues --   -0.06551  -0.06079  -0.05983  -0.05736  -0.05181
 Alpha  occ. eigenvalues --   -0.04280  -0.04065  -0.03362  -0.02778  -0.02355
 Alpha  occ. eigenvalues --   -0.02114
 Alpha virt. eigenvalues --    0.12515   0.13294   0.14218   0.14487   0.17144
 Alpha virt. eigenvalues --    0.17253   0.17719   0.17954   0.18408   0.20345
 Alpha virt. eigenvalues --    0.21332   0.21755   0.21886   0.23226   0.23425

 Mulliken charges:
               1
     1  Cd   0.929467
     2  C    0.562470
     3  C    0.234830
     4  C   -0.059918
     5  H    0.080661
     6  C    0.009102
     7  H    0.084315
     8  C    0.149130
     9  C    0.168956
    10  H    0.132894
    11  N   -0.471837
    12  N    0.358830
    13  O   -0.488539
    14  O   -0.583262
    15  O   -0.377133
    16  O   -0.370580
    17  C    0.551650
    18  C    0.226409
    19  C   -0.044763
    20  H    0.064577
    21  C    0.004419
    22  H    0.063231
    23  C    0.139629
    24  C    0.207689
    25  H    0.132997
    26  N   -0.506195
    27  N    0.365962
    28  O   -0.561590
    29  O   -0.529927
    30  O   -0.384450
    31  O   -0.409458
    32  Cd   0.918909
    33  O   -0.600134
    34  O   -0.615294
    35  C    0.546580
    36  C    0.131967
    37  C   -0.017257
    38  H    0.069734
    39  C   -0.004111
    40  H    0.076957
    41  C    0.156450
    42  C    0.109231
    43  H    0.086885
    44  N   -0.353033
    45  N    0.364098
    46  O   -0.491239
    47  O   -0.405991
    48  O   -0.391573
    49  C    0.497573
    50  C    0.210448
    51  C   -0.049694
    52  H    0.072382
    53  C   -0.019113
    54  H    0.075002
    55  C    0.146619
    56  C    0.168944
    57  H    0.134600
    58  N   -0.468683
    59  N    0.361272
    60  O   -0.499789
    61  O   -0.567804
    62  O   -0.392832
    63  O   -0.368642
    64  C    0.545673
    65  C    0.248575
    66  C   -0.042048
    67  H    0.062021
    68  C    0.018467
    69  H    0.065411
    70  C    0.131469
    71  C    0.207193
    72  H    0.125113
    73  N   -0.508918
    74  N    0.367234
    75  O   -0.555648
    76  O   -0.558763
    77  O   -0.385458
    78  O   -0.395968
    79  O   -0.642142
    80  C    0.566583
    81  C    0.168669
    82  C   -0.052492
    83  H    0.045134
    84  C   -0.005464
    85  H    0.064093
    86  C    0.144993
    87  C    0.128856
    88  H    0.094137
    89  N   -0.321883
    90  N    0.365999
    91  O   -0.475884
    92  O   -0.404683
    93  O   -0.395982
    94  C    0.503612
    95  C    0.159800
    96  C   -0.053559
    97  H    0.072926
    98  C   -0.003938
    99  H    0.075970
   100  C    0.157266
   101  C    0.093972
   102  H    0.089951
   103  N   -0.349220
   104  N    0.357857
   105  O   -0.490642
   106  O   -0.382074
   107  O   -0.398234
 Sum of Mulliken charges =  -3.00000

 Dipole moment (field-independent basis, Debye):
    X=             -3.2044    Y=            -11.8851    Z=             -9.8936  Tot=             15.7926
 Quadrupole moment (field-independent basis, Debye-Ang):
   XX=           -920.8688   YY=           -662.4000   ZZ=           -628.9949
   XY=            -32.7361   XZ=            -33.5918   YZ=             12.7192

 Normal termination of Gaussian 16 at Fri Jun  9 14:42:09 2023.
